HEADER
"PSFversion" "1.00"
"M2n M3n" "PRIMLIB_ne_spectre"
"M4n M5n" "PRIMLIB_pe_spectre"
"C0n" "PRIMLIB_cmm4_spectre"
"Ioutv" ":1v"
"Vddv" ":2v"
"Vinv" ":3v"
"Vtauv" ":4v"
"Vthrv" ":5v"
