HEADER
"PSFversion" "1.00"
"M4n M2n" "PRIMLIB_ne_spectre"
"V4n V3n V2n V1n" "analogLib_vdc_spectre"
"V14n V5n" "analogLib_vpwlf_spectre"
"I56n" "dynapse1"
